
#(C) 2023 by FIZ Karlsruhe - Leibniz Institute for Information Infrastructure.  All rights reserved.
data_115739-ICSD
_database_code_ICSD 115739
_audit_creation_date 2023-02-01
_chemical_name_common 'Trisodium tetrathiophosphate'
_chemical_formula_structural 'Na3 P S4'
_chemical_formula_sum 'Na3 P1 S4'
_chemical_name_structure_type Na3(PS4)
_exptl_crystal_density_diffrn 2.21
_citation_title

;
Two-dimensional substitution series
Na\(_3\)P\(_{1-x}\)Sb\(_x\)S\(_{4-y}\)Se\(_y\). Beyond static description of
structural bottlenecks for Na\(^+\) transport
;
loop_
_citation_id
_citation_journal_full
_citation_year
_citation_journal_volume
_citation_page_first
_citation_page_last
_citation_journal_id_ASTM
primary 'Chemistry of Materials' 2022 34 2410 2421 CMATEX
loop_
_citation_author_citation_id
_citation_author_name
primary 'Till, Paul'
primary 'Agne, Matthias T.'
primary 'Kraft, Marvin A.'
primary 'Courty, Matthieu'
primary 'Famprikis, Theodosios'
primary 'Ghidiu, Michael'
primary 'Krauskopf, Thorben'
primary 'Masquelier, Christian'
primary 'Zeier, Wolfgang G.'
_cell_length_a 6.9528(1)
_cell_length_b 6.9528(1)
_cell_length_c 7.0973(2)
_cell_angle_alpha 90.
_cell_angle_beta 90.
_cell_angle_gamma 90.
_cell_volume 343.09
_cell_formula_units_Z 2
_space_group_name_H-M_alt 'P -4 21 c'
_space_group_IT_number 114
loop_
_space_group_symop_id
_space_group_symop_operation_xyz
1 'y+1/2, x+1/2, z+1/2'
2 'y, -x, -z'
3 '-y+1/2, -x+1/2, z+1/2'
4 '-y, x, -z'
5 'x+1/2, -y+1/2, -z+1/2'
6 '-x, -y, z'
7 '-x+1/2, y+1/2, -z+1/2'
8 'x, y, z'
loop_
_atom_type_symbol
_atom_type_oxidation_number
Na1+ 1
P5+ 5
S2- -2
loop_
_atom_site_label
_atom_site_type_symbol
_atom_site_symmetry_multiplicity
_atom_site_Wyckoff_symbol
_atom_site_fract_x
_atom_site_fract_y
_atom_site_fract_z
_atom_site_B_iso_or_equiv
_atom_site_occupancy
Na1 Na1+ 2 b 0. 0. 0.5 5.6(1) 1.
Na2 Na1+ 4 d 0. 0.5 0.4256(4) 5.36(7) 1.
P1 P5+ 2 a 0. 0. 0. 3.25(6) 1.
S1 S2- 8 e 0.1529(2) 0.1866(2) 0.1653(2) 3.30(5) 1.
#End of TTdata_115739-ICSD